LAMMPS data file. CGCMM style. atom_style full generated by VMD/TopoTools v1.8 on Fri Apr 18 17:23:42 EDT 2025
 5227 atoms
 5200 bonds
 9200 angles
 11200 dihedrals
 0 impropers
 9 atom types
 1 bond types
 17 angle types
 18 dihedral types
 0 improper types
 -1.994501 38.005499  xlo xhi
 -2.478999 37.521001  ylo yhi
 -2.293500 37.706500  zlo zhi

# Pair Coeffs
#
# 1  C1
# 2  C2
# 3  C3
# 4  C4
# 5  H
# 6  Li
# 7  O1
# 8  O2
# 9  O3

# Bond Coeffs
#
# 1  

# Angle Coeffs
#
# 1  C1-C2-H
# 2  C1-C2-O2
# 3  C1-C3-H
# 4  C1-O1-C4
# 5  C2-C1-C3
# 6  C2-C1-H
# 7  C2-C1-O1
# 8  C2-O2-C4
# 9  C3-C1-H
# 10  C3-C1-O1
# 11  H-C1-O1
# 12  H-C2-H
# 13  H-C2-O2
# 14  H-C3-H
# 15  O1-C4-O2
# 16  O1-C4-O3
# 17  O2-C4-O3

# Dihedral Coeffs
#
# 1  C1-C2-O2-C4
# 2  C2-C1-C3-H
# 3  C2-C1-O1-C4
# 4  C3-C1-C2-H
# 5  C3-C1-C2-O2
# 6  C3-C1-O1-C4
# 7  H-C1-C2-H
# 8  H-C1-C2-O2
# 9  H-C1-C3-H
# 10  H-C1-O1-C4
# 11  H-C2-O2-C4
# 12  O1-C1-C2-H
# 13  O1-C1-C2-O2
# 14  O1-C1-C3-H
# 15  O1-C4-O2-C2
# 16  O2-C4-O1-C1
# 17  O3-C4-O1-C1
# 18  O3-C4-O2-C2

 Masses

 1 12.011000 # C1
 2 12.011000 # C2
 3 12.011000 # C3
 4 12.011000 # C4
 5 1.007940 # H
 6 6.941000 # Li
 7 15.999000 # O1
 8 15.999000 # O2
 9 15.999000 # O3

 Atoms # full

1 1 7 0.000000 2.025000 16.645000 0.092000 # O1 PC
2 1 8 0.000000 0.559000 16.903000 1.781000 # O2 PC
3 1 9 0.000000 0.000000 15.566000 -0.000000 # O3 PC
4 1 1 0.000000 2.717000 17.288000 1.157000 # C1 PC
5 1 2 0.000000 1.595000 17.857000 1.973000 # C2 PC
6 1 3 0.000000 3.672000 18.334999 0.621000 # C3 PC
7 1 4 0.000000 0.790000 16.302000 0.572000 # C4 PC
8 1 5 0.000000 3.269000 16.520000 1.711000 # H PC
9 1 5 0.000000 1.850000 17.938000 3.033000 # H PC
10 1 5 0.000000 1.239000 18.829000 1.614000 # H PC
11 1 5 0.000000 3.147000 19.066000 -0.005000 # H PC
12 1 5 0.000000 4.176000 18.865000 1.435000 # H PC
13 1 5 0.000000 4.430000 17.865999 -0.016000 # H PC
14 2 7 0.000000 2.753000 33.603001 2.940000 # O1 PC
15 2 8 0.000000 1.337000 31.893000 2.568000 # O2 PC
16 2 9 0.000000 3.159000 32.162998 1.198000 # O3 PC
17 2 1 0.000000 1.889000 33.516998 4.068000 # C1 PC
18 2 2 0.000000 0.723000 32.747002 3.524000 # C2 PC
19 2 3 0.000000 1.525000 34.898998 4.571000 # C3 PC
20 2 4 0.000000 2.480000 32.520000 2.149000 # C4 PC
21 2 5 0.000000 2.414000 32.956001 4.850000 # H PC
22 2 5 0.000000 0.215000 32.160000 4.294000 # H PC
23 2 5 0.000000 -0.012000 33.372002 3.005000 # H PC
24 2 5 0.000000 1.074000 35.504002 3.776000 # H PC
25 2 5 0.000000 0.826000 34.844002 5.411000 # H PC
26 2 5 0.000000 2.424000 35.432999 4.897000 # H PC
27 3 7 0.000000 15.502000 32.639999 13.644000 # O1 PC
28 3 8 0.000000 14.204000 31.378000 14.982000 # O2 PC
29 3 9 0.000000 15.504000 30.358999 13.388000 # O3 PC
30 3 1 0.000000 15.025000 33.484001 14.686000 # C1 PC
31 3 2 0.000000 13.826000 32.734001 15.184000 # C2 PC
32 3 3 0.000000 14.700000 34.865002 14.152000 # C3 PC
33 3 4 0.000000 15.108000 31.367001 13.953000 # C4 PC
34 3 5 0.000000 15.807000 33.548000 15.451000 # H PC
35 3 5 0.000000 13.626000 32.922001 16.242001 # H PC
36 3 5 0.000000 12.915000 32.926998 14.607000 # H PC
37 3 5 0.000000 13.980000 34.811001 13.328000 # H PC
38 3 5 0.000000 14.291000 35.507000 14.937000 # H PC
39 3 5 0.000000 15.603000 35.335999 13.748000 # H PC
40 4 7 0.000000 13.701000 14.823000 3.304000 # O1 PC
41 4 8 0.000000 15.559000 14.573000 2.058000 # O2 PC
42 4 9 0.000000 13.762000 13.195000 1.686000 # O3 PC
43 4 1 0.000000 14.532000 15.951000 3.555000 # C1 PC
44 4 2 0.000000 15.881000 15.461000 3.121000 # C2 PC
45 4 3 0.000000 14.470000 16.349001 5.016000 # C3 PC
46 4 4 0.000000 14.291000 14.114000 2.293000 # C4 PC
47 4 5 0.000000 14.180000 16.775000 2.923000 # H PC
48 4 5 0.000000 16.524000 16.268999 2.765000 # H PC
49 4 5 0.000000 16.412001 14.894000 3.894000 # H PC
50 4 5 0.000000 14.739000 15.509000 5.666000 # H PC
51 4 5 0.000000 15.139000 17.187000 5.228000 # H PC
52 4 5 0.000000 13.448000 16.638000 5.287000 # H PC
53 5 7 0.000000 12.864000 32.846001 23.100000 # O1 PC
54 5 8 0.000000 11.628000 31.395000 21.902000 # O2 PC
55 5 9 0.000000 13.260000 32.619999 20.850000 # O3 PC
56 5 1 0.000000 12.134000 32.049000 24.025999 # C1 PC
57 5 2 0.000000 11.017000 31.514000 23.180000 # C2 PC
58 5 3 0.000000 11.662000 32.884998 25.198000 # C3 PC
59 5 4 0.000000 12.642000 32.313999 21.858000 # C4 PC
60 5 5 0.000000 12.795000 31.247999 24.374001 # H PC
61 5 5 0.000000 10.661000 30.540001 23.527000 # H PC
62 5 5 0.000000 10.166000 32.196999 23.091999 # H PC
63 5 5 0.000000 11.067000 33.741001 24.860001 # H PC
64 5 5 0.000000 11.062000 32.291000 25.893000 # H PC
65 5 5 0.000000 12.521000 33.298000 25.739000 # H PC
66 6 7 0.000000 19.579000 18.120001 28.555000 # O1 PC
67 6 8 0.000000 20.959000 16.378000 28.198999 # O2 PC
68 6 9 0.000000 18.697001 16.011999 28.336000 # O3 PC
69 6 1 0.000000 20.863001 18.653999 28.253000 # C1 PC
70 6 2 0.000000 21.770000 17.495001 28.539000 # C2 PC
71 6 3 0.000000 21.150000 19.875000 29.103001 # C3 PC
72 6 4 0.000000 19.656000 16.768000 28.360001 # C4 PC
73 6 5 0.000000 20.874001 18.922001 27.190001 # H PC
74 6 5 0.000000 22.674999 17.511999 27.926001 # H PC
75 6 5 0.000000 22.052000 17.407000 29.594000 # H PC
76 6 5 0.000000 21.061001 19.643999 30.171000 # H PC
77 6 5 0.000000 22.153000 20.267000 28.909000 # H PC
78 6 5 0.000000 20.419001 20.664000 28.893000 # H PC
79 7 7 0.000000 31.597000 16.054001 26.478001 # O1 PC
80 7 8 0.000000 32.273998 17.537001 28.030001 # O2 PC
81 7 9 0.000000 33.473999 15.605000 27.719999 # O3 PC
82 7 1 0.000000 30.849001 17.247999 26.275000 # C1 PC
83 7 2 0.000000 30.980000 17.938999 27.599001 # C2 PC
84 7 3 0.000000 29.417000 16.926001 25.896000 # C3 PC
85 7 4 0.000000 32.535000 16.332001 27.434000 # C4 PC
86 7 5 0.000000 31.334000 17.816000 25.474001 # H PC
87 7 5 0.000000 30.927000 19.027000 27.509001 # H PC
88 7 5 0.000000 30.250000 17.605000 28.344000 # H PC
89 7 5 0.000000 28.941999 16.287001 26.649000 # H PC
90 7 5 0.000000 28.823000 17.837000 25.782000 # H PC
91 7 5 0.000000 29.391001 16.368999 24.952999 # H PC
92 8 7 0.000000 11.743000 33.546001 29.177999 # O1 PC
93 8 8 0.000000 12.227000 35.391998 30.372999 # O2 PC
94 8 9 0.000000 12.220000 35.506001 28.080000 # O3 PC
95 8 1 0.000000 11.420000 33.265999 30.535000 # C1 PC
96 8 2 0.000000 12.222000 34.293999 31.277000 # C2 PC
97 8 3 0.000000 11.783000 31.839001 30.889999 # C3 PC
98 8 4 0.000000 12.075000 34.873001 29.115000 # C4 PC
99 8 5 0.000000 10.343000 33.425999 30.663000 # H PC
100 8 5 0.000000 11.759000 34.580002 32.224998 # H PC
101 8 5 0.000000 13.259000 33.993000 31.459000 # H PC
102 8 5 0.000000 12.841000 31.638000 30.688000 # H PC
103 8 5 0.000000 11.578000 31.627001 31.944000 # H PC
104 8 5 0.000000 11.209000 31.136999 30.273001 # H PC
105 9 7 0.000000 11.432000 12.920000 27.497000 # O1 PC
106 9 8 0.000000 12.443000 14.731000 28.372999 # O2 PC
107 9 9 0.000000 13.554000 13.466000 26.813000 # O3 PC
108 9 1 0.000000 10.443000 13.649000 28.214001 # C1 PC
109 9 2 0.000000 11.270000 14.490000 29.139999 # C2 PC
110 9 3 0.000000 9.496000 12.708000 28.930000 # C3 PC
111 9 4 0.000000 12.566000 13.686000 27.497000 # C4 PC
112 9 5 0.000000 9.892000 14.265000 27.493999 # H PC
113 9 5 0.000000 10.780000 15.433000 29.396999 # H PC
114 9 5 0.000000 11.561000 13.974000 30.061001 # H PC
115 9 5 0.000000 10.041000 12.027000 29.593000 # H PC
116 9 5 0.000000 8.758000 13.259000 29.520000 # H PC
117 9 5 0.000000 8.966000 12.079000 28.205000 # H PC
118 10 7 0.000000 13.375000 26.600000 14.566000 # O1 PC
119 10 8 0.000000 14.808000 26.687000 12.832000 # O2 PC
120 10 9 0.000000 14.528000 28.542000 14.154000 # O3 PC
121 10 1 0.000000 13.550000 25.268000 14.096000 # C1 PC
122 10 2 0.000000 14.065000 25.481001 12.704000 # C2 PC
123 10 3 0.000000 12.242000 24.504000 14.151000 # C3 PC
124 10 4 0.000000 14.262000 27.382000 13.877000 # C4 PC
125 10 5 0.000000 14.299000 24.783001 14.733000 # H PC
126 10 5 0.000000 14.710000 24.666000 12.368000 # H PC
127 10 5 0.000000 13.274000 25.642000 11.963000 # H PC
128 10 5 0.000000 11.458000 25.020000 13.586000 # H PC
129 10 5 0.000000 12.357000 23.492001 13.751000 # H PC
130 10 5 0.000000 11.887000 24.434000 15.185000 # H PC
131 11 7 0.000000 4.076000 24.396000 34.900002 # O1 PC
132 11 8 0.000000 6.287000 24.466999 34.480999 # O2 PC
133 11 9 0.000000 5.393000 22.615000 35.500999 # O3 PC
134 11 1 0.000000 4.308000 25.509001 34.042999 # C1 PC
135 11 2 0.000000 5.772000 25.770000 34.241001 # C2 PC
136 11 3 0.000000 3.424000 26.677000 34.429001 # C3 PC
137 11 4 0.000000 5.263000 23.723000 35.005001 # C4 PC
138 11 5 0.000000 4.091000 25.193001 33.015999 # H PC
139 11 5 0.000000 6.240000 26.212000 33.358002 # H PC
140 11 5 0.000000 5.992000 26.393000 35.115002 # H PC
141 11 5 0.000000 3.569000 26.952999 35.480000 # H PC
142 11 5 0.000000 3.626000 27.552000 33.804001 # H PC
143 11 5 0.000000 2.368000 26.405001 34.320999 # H PC
144 12 7 0.000000 28.038000 23.490999 0.109000 # O1 PC
145 12 8 0.000000 27.082001 24.681999 1.763000 # O2 PC
146 12 9 0.000000 25.798000 23.982000 -0.006000 # O3 PC
147 12 1 0.000000 28.976999 23.559000 1.177000 # C1 PC
148 12 2 0.000000 28.489000 24.740999 1.961000 # C2 PC
149 12 3 0.000000 30.386000 23.723000 0.643000 # C3 PC
150 12 4 0.000000 26.874001 24.044001 0.570000 # C4 PC
151 12 5 0.000000 28.896000 22.631001 1.755000 # H PC
152 12 5 0.000000 28.731001 24.665001 3.024000 # H PC
153 12 5 0.000000 28.850000 25.702000 1.578000 # H PC
154 12 5 0.000000 30.464001 24.601999 -0.005000 # H PC
155 12 5 0.000000 31.110001 23.820000 1.458000 # H PC
156 12 5 0.000000 30.660999 22.858000 0.030000 # H PC
157 13 7 0.000000 27.365000 30.194000 30.809999 # O1 PC
158 13 8 0.000000 26.054001 31.214001 29.290001 # O2 PC
159 13 9 0.000000 26.514999 28.976999 29.059000 # O3 PC
160 13 1 0.000000 27.034000 31.476999 31.330999 # C1 PC
161 13 2 0.000000 26.631001 32.230999 30.099001 # C2 PC
162 13 3 0.000000 28.219000 32.084000 32.055000 # C3 PC
163 13 4 0.000000 26.632999 30.031000 29.665001 # C4 PC
164 13 5 0.000000 26.191999 31.351999 32.021000 # H PC
165 13 5 0.000000 25.898001 33.014999 30.309999 # H PC
166 13 5 0.000000 27.475000 32.667000 29.554001 # H PC
167 13 5 0.000000 29.097000 32.139000 31.400999 # H PC
168 13 5 0.000000 27.988001 33.088001 32.421001 # H PC
169 13 5 0.000000 28.504000 31.455999 32.907001 # H PC
170 14 7 0.000000 27.577000 19.555000 15.587000 # O1 PC
171 14 8 0.000000 26.780001 17.457001 15.766000 # O2 PC
172 14 9 0.000000 29.040001 17.785999 15.534000 # O3 PC
173 14 1 0.000000 26.212999 19.653999 15.980000 # C1 PC
174 14 2 0.000000 25.664000 18.318001 15.580000 # C2 PC
175 14 3 0.000000 25.539000 20.820999 15.288000 # C3 PC
176 14 4 0.000000 27.903999 18.226000 15.622000 # C4 PC
177 14 5 0.000000 26.187000 19.792000 17.068001 # H PC
178 14 5 0.000000 24.827999 18.004000 16.212000 # H PC
179 14 5 0.000000 25.360001 18.264000 14.529000 # H PC
180 14 5 0.000000 25.629000 20.740999 14.199000 # H PC
181 14 5 0.000000 24.479000 20.879000 15.550000 # H PC
182 14 5 0.000000 26.023001 21.761999 15.573000 # H PC
183 15 7 0.000000 14.175000 5.797000 5.312000 # O1 PC
184 15 8 0.000000 15.732000 7.283000 5.973000 # O2 PC
185 15 9 0.000000 16.205000 5.038000 6.069000 # O3 PC
186 15 1 0.000000 13.729000 7.086000 4.904000 # C1 PC
187 15 2 0.000000 14.516000 7.998000 5.797000 # C2 PC
188 15 3 0.000000 12.228000 7.214000 5.074000 # C3 PC
189 15 4 0.000000 15.441000 5.955000 5.807000 # C4 PC
190 15 5 0.000000 14.003000 7.218000 3.851000 # H PC
191 15 5 0.000000 14.706000 8.971000 5.337000 # H PC
192 15 5 0.000000 14.060000 8.149000 6.782000 # H PC
193 15 5 0.000000 11.928000 7.002000 6.106000 # H PC
194 15 5 0.000000 11.882000 8.215000 4.804000 # H PC
195 15 5 0.000000 11.712000 6.482000 4.443000 # H PC
196 16 7 0.000000 13.083000 30.231001 20.733000 # O1 PC
197 16 8 0.000000 14.993000 29.105000 21.125000 # O2 PC
198 16 9 0.000000 15.055000 31.021000 19.861000 # O3 PC
199 16 1 0.000000 12.803000 29.263000 21.738001 # C1 PC
200 16 2 0.000000 13.920000 28.278000 21.558001 # C2 PC
201 16 3 0.000000 11.426000 28.664000 21.538000 # C3 PC
202 16 4 0.000000 14.434000 30.195999 20.514000 # C4 PC
203 16 5 0.000000 12.860000 29.764000 22.712000 # H PC
204 16 5 0.000000 14.181000 27.768000 22.489000 # H PC
205 16 5 0.000000 13.726000 27.532000 20.781000 # H PC
206 16 5 0.000000 11.324000 28.232000 20.535999 # H PC
207 16 5 0.000000 11.219000 27.886999 22.280001 # H PC
208 16 5 0.000000 10.659000 29.441999 21.621000 # H PC
209 17 7 0.000000 15.262000 19.136999 0.176000 # O1 PC
210 17 8 0.000000 14.123000 18.858000 2.098000 # O2 PC
211 17 9 0.000000 12.970000 19.268000 0.155000 # O3 PC
212 17 1 0.000000 16.181000 18.643000 1.144000 # C1 PC
213 17 2 0.000000 15.498000 18.975000 2.437000 # C2 PC
214 17 3 0.000000 17.535999 19.304001 0.984000 # C3 PC
215 17 4 0.000000 14.022000 19.101000 0.754000 # C4 PC
216 17 5 0.000000 16.268999 17.559000 1.001000 # H PC
217 17 5 0.000000 15.757000 18.275999 3.237000 # H PC
218 17 5 0.000000 15.682000 19.997999 2.781000 # H PC
219 17 5 0.000000 17.452999 20.395000 1.041000 # H PC
220 17 5 0.000000 18.237000 18.962999 1.751000 # H PC
221 17 5 0.000000 17.955000 19.073999 -0.002000 # H PC
222 18 7 0.000000 8.779000 5.355000 33.807999 # O1 PC
223 18 8 0.000000 6.873000 4.172000 33.623001 # O2 PC
224 18 9 0.000000 8.890000 3.087000 33.466000 # O3 PC
225 18 1 0.000000 7.712000 6.210000 34.202000 # C1 PC
226 18 2 0.000000 6.520000 5.548000 33.577999 # C2 PC
227 18 3 0.000000 7.949000 7.624000 33.713001 # C3 PC
228 18 4 0.000000 8.241000 4.110000 33.619999 # C4 PC
229 18 5 0.000000 7.655000 6.192000 35.297001 # H PC
230 18 5 0.000000 5.600000 5.728000 34.139999 # H PC
231 18 5 0.000000 6.361000 5.828000 32.530998 # H PC
232 18 5 0.000000 8.092000 7.649000 32.626999 # H PC
233 18 5 0.000000 7.113000 8.279000 33.973999 # H PC
234 18 5 0.000000 8.865000 8.030000 34.157001 # H PC
235 19 7 0.000000 24.362000 23.283001 32.661999 # O1 PC
236 19 8 0.000000 22.392000 23.768999 33.638000 # O2 PC
237 19 9 0.000000 22.771999 24.438999 31.475000 # O3 PC
238 19 1 0.000000 24.294001 22.535999 33.872002 # C1 PC
239 19 2 0.000000 23.257999 23.284000 34.655998 # C2 PC
240 19 3 0.000000 25.650000 22.486000 34.547001 # C3 PC
241 19 4 0.000000 23.141001 23.879999 32.497002 # C4 PC
242 19 5 0.000000 23.957001 21.523001 33.622002 # H PC
243 19 5 0.000000 22.712000 22.639000 35.348999 # H PC
244 19 5 0.000000 23.658001 24.143000 35.205002 # H PC
245 19 5 0.000000 26.039000 23.493000 34.728001 # H PC
246 19 5 0.000000 25.598000 21.951000 35.500000 # H PC
247 19 5 0.000000 26.377001 21.982000 33.901001 # H PC
248 20 7 0.000000 3.053000 5.343000 8.934000 # O1 PC
249 20 8 0.000000 2.525000 7.498000 8.554000 # O2 PC
250 20 9 0.000000 4.497000 6.993000 9.614000 # O3 PC
251 20 1 0.000000 1.940000 5.354000 8.047000 # C1 PC
252 20 2 0.000000 1.368000 6.723000 8.265000 # C2 PC
253 20 3 0.000000 0.977000 4.233000 8.381000 # C3 PC
254 20 4 0.000000 3.455000 6.643000 9.082000 # C4 PC
255 20 5 0.000000 2.322000 5.234000 7.027000 # H PC
256 20 5 0.000000 0.860000 7.109000 7.377000 # H PC
257 20 5 0.000000 0.690000 6.785000 9.122000 # H PC
258 20 5 0.000000 0.649000 4.290000 9.425000 # H PC
259 20 5 0.000000 0.096000 4.260000 7.733000 # H PC
260 20 5 0.000000 1.470000 3.261000 8.262000 # H PC
261 21 7 0.000000 25.823000 22.809999 20.774000 # O1 PC
262 21 8 0.000000 27.070000 22.148001 19.020000 # O2 PC
263 21 9 0.000000 24.820999 22.509001 18.730000 # O3 PC
264 21 1 0.000000 27.188000 22.921000 21.160999 # C1 PC
265 21 2 0.000000 27.875000 22.014000 20.184000 # C2 PC
266 21 3 0.000000 27.371000 22.507999 22.607000 # C3 PC
267 21 4 0.000000 25.813000 22.492001 19.443001 # C4 PC
268 21 5 0.000000 27.492001 23.966000 21.024000 # H PC
269 21 5 0.000000 28.903000 22.325001 19.978001 # H PC
270 21 5 0.000000 27.872000 20.961000 20.485001 # H PC
271 21 5 0.000000 26.993999 21.493000 22.780001 # H PC
272 21 5 0.000000 28.424000 22.548000 22.900999 # H PC
273 21 5 0.000000 26.797001 23.169001 23.266001 # H PC
274 22 7 0.000000 2.087000 11.224000 6.720000 # O1 PC
275 22 8 0.000000 -0.026000 10.928000 7.440000 # O2 PC
276 22 9 0.000000 0.350000 12.107000 5.506000 # O3 PC
277 22 1 0.000000 2.128000 10.256000 7.763000 # C1 PC
278 22 2 0.000000 0.839000 10.507000 8.487000 # C2 PC
279 22 3 0.000000 3.358000 10.450000 8.626000 # C3 PC
280 22 4 0.000000 0.766000 11.477000 6.466000 # C4 PC
281 22 5 0.000000 2.143000 9.263000 7.299000 # H PC
282 22 5 0.000000 0.449000 9.606000 8.968000 # H PC
283 22 5 0.000000 0.900000 11.312000 9.227000 # H PC
284 22 5 0.000000 3.402000 11.467000 9.031000 # H PC
285 22 5 0.000000 3.376000 9.738000 9.457000 # H PC
286 22 5 0.000000 4.266000 10.314000 8.028000 # H PC
287 23 7 0.000000 25.450001 19.489000 25.268000 # O1 PC
288 23 8 0.000000 23.398001 19.218000 24.382999 # O2 PC
289 23 9 0.000000 24.801001 20.809000 23.506001 # O3 PC
290 23 1 0.000000 24.912001 18.288000 25.811001 # C1 PC
291 23 2 0.000000 23.440001 18.465000 25.589001 # C2 PC
292 23 3 0.000000 25.292999 18.141001 27.271000 # C3 PC
293 23 4 0.000000 24.572001 19.919001 24.311001 # C4 PC
294 23 5 0.000000 25.309000 17.448999 25.229000 # H PC
295 23 5 0.000000 22.917999 17.511999 25.465000 # H PC
296 23 5 0.000000 22.943001 19.046000 26.374001 # H PC
297 23 5 0.000000 24.976000 19.013000 27.853001 # H PC
298 23 5 0.000000 24.848000 17.243000 27.709000 # H PC
299 23 5 0.000000 26.382999 18.077999 27.372999 # H PC
300 24 7 0.000000 29.975000 19.789000 19.325001 # O1 PC
301 24 8 0.000000 30.274000 18.136999 17.826000 # O2 PC
302 24 9 0.000000 28.615999 17.940001 19.400999 # O3 PC
303 24 1 0.000000 30.865000 20.280001 18.327999 # C1 PC
304 24 2 0.000000 31.385000 19.017000 17.709999 # C2 PC
305 24 3 0.000000 31.944000 21.142000 18.951000 # C3 PC
306 24 4 0.000000 29.535999 18.566000 18.896000 # C4 PC
307 24 5 0.000000 30.277000 20.867001 17.613001 # H PC
308 24 5 0.000000 31.662001 19.149000 16.660999 # H PC
309 24 5 0.000000 32.230000 18.577999 18.252001 # H PC
310 24 5 0.000000 32.487999 20.594999 19.729000 # H PC
311 24 5 0.000000 32.659000 21.488001 18.198000 # H PC
312 24 5 0.000000 31.497000 22.016001 19.438000 # H PC
313 25 7 0.000000 26.226999 0.241000 6.511000 # O1 PC
314 25 8 0.000000 26.888000 2.167000 7.471000 # O2 PC
315 25 9 0.000000 27.749001 0.178000 8.228000 # O3 PC
316 25 1 0.000000 25.756001 1.305000 5.691000 # C1 PC
317 25 2 0.000000 25.783001 2.473000 6.630000 # C2 PC
318 25 3 0.000000 24.375999 0.993000 5.147000 # C3 PC
319 25 4 0.000000 27.023001 0.804000 7.472000 # C4 PC
320 25 5 0.000000 26.468000 1.434000 4.867000 # H PC
321 25 5 0.000000 25.945999 3.422000 6.112000 # H PC
322 25 5 0.000000 24.888000 2.555000 7.256000 # H PC
323 25 5 0.000000 23.671000 0.779000 5.958000 # H PC
324 25 5 0.000000 23.988001 1.824000 4.551000 # H PC
325 25 5 0.000000 24.410999 0.096000 4.519000 # H PC
326 26 7 0.000000 19.355000 5.922000 15.476000 # O1 PC
327 26 8 0.000000 18.044001 7.591000 14.723000 # O2 PC
328 26 9 0.000000 17.808001 5.487000 13.835000 # O3 PC
329 26 1 0.000000 19.521999 7.022000 16.363001 # C1 PC
330 26 2 0.000000 19.052999 8.180000 15.533000 # C2 PC
331 26 3 0.000000 20.965000 7.138000 16.809000 # C3 PC
332 26 4 0.000000 18.351999 6.261000 14.608000 # C4 PC
333 26 5 0.000000 18.870001 6.857000 17.229000 # H PC
334 26 5 0.000000 18.635000 8.987000 16.139999 # H PC
335 26 5 0.000000 19.827000 8.590000 14.874000 # H PC
336 26 5 0.000000 21.639999 7.219000 15.949000 # H PC
337 26 5 0.000000 21.112000 8.007000 17.455999 # H PC
338 26 5 0.000000 21.266001 6.237000 17.356001 # H PC
339 27 7 0.000000 25.749001 8.378000 27.646999 # O1 PC
340 27 8 0.000000 23.598000 8.819000 28.141001 # O2 PC
341 27 9 0.000000 25.194000 10.421000 28.535000 # O3 PC
342 27 1 0.000000 24.962999 7.344000 27.066999 # C1 PC
343 27 2 0.000000 23.687000 7.431000 27.850000 # C2 PC
344 27 3 0.000000 25.662001 6.005000 27.188999 # C3 PC
345 27 4 0.000000 24.877001 9.309000 28.142000 # C4 PC
346 27 5 0.000000 24.805000 7.594000 26.011000 # H PC
347 27 5 0.000000 22.819000 7.103000 27.271000 # H PC
348 27 5 0.000000 23.715000 6.882000 28.797001 # H PC
349 27 5 0.000000 25.902000 5.778000 28.233999 # H PC
350 27 5 0.000000 25.046000 5.197000 26.785000 # H PC
351 27 5 0.000000 26.615000 6.024000 26.648001 # H PC
352 28 7 0.000000 0.750000 21.441000 14.018000 # O1 PC
353 28 8 0.000000 1.200000 20.202000 12.194000 # O2 PC
354 28 9 0.000000 -0.002000 19.274000 13.916000 # O3 PC
355 28 1 0.000000 1.259000 22.323000 13.024000 # C1 PC
356 28 2 0.000000 1.979000 21.386999 12.100000 # C2 PC
357 28 3 0.000000 2.156000 23.374001 13.647000 # C3 PC
358 28 4 0.000000 0.593000 20.219999 13.421000 # C4 PC
359 28 5 0.000000 0.405000 22.799999 12.530000 # H PC
360 28 5 0.000000 2.000000 21.752001 11.070000 # H PC
361 28 5 0.000000 3.000000 21.153999 12.420000 # H PC
362 28 5 0.000000 2.970000 22.910999 14.216000 # H PC
363 28 5 0.000000 2.587000 24.030001 12.885000 # H PC
364 28 5 0.000000 1.588000 23.985001 14.356000 # H PC
365 29 7 0.000000 8.426000 24.836000 30.895000 # O1 PC
366 29 8 0.000000 9.038000 22.681999 31.129000 # O2 PC
367 29 9 0.000000 10.614000 24.242001 30.533001 # O3 PC
368 29 1 0.000000 7.341000 24.153999 31.514999 # C1 PC
369 29 2 0.000000 7.617000 22.723000 31.164000 # C2 PC
370 29 3 0.000000 6.015000 24.665001 30.988001 # C3 PC
371 29 4 0.000000 9.465000 23.948000 30.827000 # C4 PC
372 29 5 0.000000 7.411000 24.325001 32.595001 # H PC
373 29 5 0.000000 7.232000 22.028000 31.914000 # H PC
374 29 5 0.000000 7.241000 22.431999 30.177000 # H PC
375 29 5 0.000000 5.963000 24.579000 29.896999 # H PC
376 29 5 0.000000 5.177000 24.117001 31.426001 # H PC
377 29 5 0.000000 5.900000 25.730000 31.222000 # H PC
378 30 7 0.000000 20.221001 33.549999 28.094999 # O1 PC
379 30 8 0.000000 19.223000 35.500999 28.611000 # O2 PC
380 30 9 0.000000 21.399000 35.507999 27.877001 # O3 PC
381 30 1 0.000000 18.832001 33.284000 28.257999 # C1 PC
382 30 2 0.000000 18.371000 34.459000 29.068001 # C2 PC
383 30 3 0.000000 18.618000 31.950001 28.944000 # C3 PC
384 30 4 0.000000 20.375000 34.908001 28.166000 # C4 PC
385 30 5 0.000000 18.372999 33.275002 27.261999 # H PC
386 30 5 0.000000 17.323999 34.709999 28.879999 # H PC
387 30 5 0.000000 18.523001 34.335999 30.145000 # H PC
388 30 5 0.000000 19.141001 31.910999 29.906000 # H PC
389 30 5 0.000000 17.554001 31.757000 29.113001 # H PC
390 30 5 0.000000 19.028999 31.139000 28.333000 # H PC
391 31 7 0.000000 8.536000 24.801001 20.055000 # O1 PC
392 31 8 0.000000 9.654000 23.163000 18.990999 # O2 PC
393 31 9 0.000000 10.003000 23.488001 21.237000 # O3 PC
394 31 1 0.000000 7.944000 24.653000 18.768999 # C1 PC
395 31 2 0.000000 9.024000 23.958000 17.995001 # C2 PC
396 31 3 0.000000 7.558000 26.002001 18.197001 # C3 PC
397 31 4 0.000000 9.447000 23.789000 20.191000 # C4 PC
398 31 5 0.000000 7.056000 24.020000 18.879999 # H PC
399 31 5 0.000000 8.625000 23.327000 17.195999 # H PC
400 31 5 0.000000 9.772000 24.639000 17.575001 # H PC
401 31 5 0.000000 8.420000 26.677000 18.158001 # H PC
402 31 5 0.000000 7.142000 25.902000 17.191000 # H PC
403 31 5 0.000000 6.812000 26.486000 18.839001 # H PC
404 32 7 0.000000 28.242001 32.716999 20.527000 # O1 PC
405 32 8 0.000000 30.374001 32.009998 20.368999 # O2 PC
406 32 9 0.000000 29.603001 32.820000 22.372999 # O3 PC
407 32 1 0.000000 28.368999 32.034000 19.285000 # C1 PC
408 32 2 0.000000 29.849001 32.067001 19.048000 # C2 PC
409 32 3 0.000000 27.565001 32.730999 18.205999 # C3 PC
410 32 4 0.000000 29.422001 32.540001 21.198000 # C4 PC
411 32 5 0.000000 28.006001 31.010000 19.426001 # H PC
412 32 5 0.000000 30.197001 31.212999 18.459999 # H PC
413 32 5 0.000000 30.198999 32.992001 18.579000 # H PC
414 32 5 0.000000 27.858999 33.782001 18.108999 # H PC
415 32 5 0.000000 27.691000 32.238998 17.237000 # H PC
416 32 5 0.000000 26.500000 32.728001 18.465000 # H PC
417 33 7 0.000000 29.382000 2.163000 23.464001 # O1 PC
418 33 8 0.000000 30.908001 3.785000 23.132000 # O2 PC
419 33 9 0.000000 31.464001 1.606000 22.671000 # O3 PC
420 33 1 0.000000 28.702999 3.409000 23.569000 # C1 PC
421 33 2 0.000000 29.823999 4.365000 23.846001 # C2 PC
422 33 3 0.000000 27.660000 3.360000 24.667999 # C3 PC
423 33 4 0.000000 30.658001 2.441000 23.052999 # C4 PC
424 33 5 0.000000 28.226000 3.614000 22.604000 # H PC
425 33 5 0.000000 29.615000 5.372000 23.474001 # H PC
426 33 5 0.000000 30.101000 4.424000 24.903999 # H PC
427 33 5 0.000000 28.107000 3.073000 25.625999 # H PC
428 33 5 0.000000 27.162001 4.327000 24.785999 # H PC
429 33 5 0.000000 26.903000 2.602000 24.438000 # H PC
430 34 7 0.000000 12.324000 28.496000 29.693001 # O1 PC
431 34 8 0.000000 11.552000 29.266001 27.724001 # O2 PC
432 34 9 0.000000 13.477000 30.155001 28.601999 # O3 PC
433 34 1 0.000000 11.297000 27.608000 29.267000 # C1 PC
434 34 2 0.000000 10.535000 28.445000 28.283001 # C2 PC
435 34 3 0.000000 10.465000 27.145000 30.445999 # C3 PC
436 34 4 0.000000 12.539000 29.375999 28.667000 # C4 PC
437 34 5 0.000000 11.776000 26.750000 28.781000 # H PC
438 34 5 0.000000 10.056000 27.843000 27.506001 # H PC
439 34 5 0.000000 9.785000 29.094000 28.747000 # H PC
440 34 5 0.000000 10.046000 27.997000 30.993999 # H PC
441 34 5 0.000000 9.646000 26.496000 30.122999 # H PC
442 34 5 0.000000 11.090000 26.594000 31.158001 # H PC
443 35 7 0.000000 22.198999 18.945000 18.521999 # O1 PC
444 35 8 0.000000 22.938999 19.636000 16.511999 # O2 PC
445 35 9 0.000000 22.313000 17.445000 16.787001 # O3 PC
446 35 1 0.000000 22.257999 20.365999 18.561001 # C1 PC
447 35 2 0.000000 23.204000 20.680000 17.440001 # C2 PC
448 35 3 0.000000 22.740000 20.846001 19.915001 # C3 PC
449 35 4 0.000000 22.468000 18.572001 17.233000 # C4 PC
450 35 5 0.000000 21.252001 20.750000 18.358000 # H PC
451 35 5 0.000000 23.006001 21.655001 16.988001 # H PC
452 35 5 0.000000 24.260000 20.625000 17.726999 # H PC
453 35 5 0.000000 23.709000 20.403999 20.170000 # H PC
454 35 5 0.000000 22.830999 21.936001 19.940001 # H PC
455 35 5 0.000000 22.039000 20.534000 20.698000 # H PC
456 36 7 0.000000 17.368999 25.875000 9.277000 # O1 PC
457 36 8 0.000000 18.957001 25.739000 7.687000 # O2 PC
458 36 9 0.000000 17.365000 27.388000 7.550000 # O3 PC
459 36 1 0.000000 18.353001 24.959000 9.742000 # C1 PC
460 36 2 0.000000 19.045000 24.558001 8.473000 # C2 PC
461 36 3 0.000000 17.705999 23.801001 10.474000 # C3 PC
462 36 4 0.000000 17.853001 26.424000 8.120000 # C4 PC
463 36 5 0.000000 19.027000 25.503000 10.414000 # H PC
464 36 5 0.000000 20.091000 24.283001 8.637000 # H PC
465 36 5 0.000000 18.541000 23.747999 7.935000 # H PC
466 36 5 0.000000 16.966000 23.297001 9.842000 # H PC
467 36 5 0.000000 18.451000 23.069000 10.797000 # H PC
468 36 5 0.000000 17.166000 24.164000 11.355000 # H PC
469 37 7 0.000000 24.530001 32.043999 9.245000 # O1 PC
470 37 8 0.000000 26.759001 32.049000 9.561000 # O2 PC
471 37 9 0.000000 25.486000 33.715000 10.496000 # O3 PC
472 37 1 0.000000 25.023001 30.787001 8.796000 # C1 PC
473 37 2 0.000000 26.476999 31.073000 8.567000 # C2 PC
474 37 3 0.000000 24.287001 30.336000 7.549000 # C3 PC
475 37 4 0.000000 25.582001 32.695999 9.830000 # C4 PC
476 37 5 0.000000 24.877001 30.061001 9.604000 # H PC
477 37 5 0.000000 27.104000 30.188000 8.708000 # H PC
478 37 5 0.000000 26.688999 31.510000 7.585000 # H PC
479 37 5 0.000000 24.353001 31.091000 6.757000 # H PC
480 37 5 0.000000 24.688999 29.392000 7.171000 # H PC
481 37 5 0.000000 23.221001 30.204000 7.766000 # H PC
482 38 7 0.000000 4.001000 18.865999 29.584999 # O1 PC
483 38 8 0.000000 4.859000 17.532000 27.987000 # O2 PC
484 38 9 0.000000 3.682000 16.596001 29.722000 # O3 PC
485 38 1 0.000000 4.435000 19.705999 28.521999 # C1 PC
486 38 2 0.000000 5.408000 18.829000 27.792000 # C2 PC
487 38 3 0.000000 5.052000 20.981001 29.062000 # C3 PC
488 38 4 0.000000 4.137000 17.575001 29.150000 # C4 PC
489 38 5 0.000000 3.561000 19.941999 27.902000 # H PC
490 38 5 0.000000 5.465000 19.065001 26.726999 # H PC
491 38 5 0.000000 6.417000 18.841999 28.218000 # H PC
492 38 5 0.000000 5.875000 20.760000 29.750999 # H PC
493 38 5 0.000000 5.428000 21.614000 28.253000 # H PC
494 38 5 0.000000 4.309000 21.547001 29.636000 # H PC
495 39 7 0.000000 8.118000 0.224000 18.590000 # O1 PC
496 39 8 0.000000 9.297000 1.670000 17.329000 # O2 PC
497 39 9 0.000000 10.401000 0.317000 18.819000 # O3 PC
498 39 1 0.000000 7.238000 0.729000 17.591999 # C1 PC
499 39 2 0.000000 7.922000 1.994000 17.167999 # C2 PC
500 39 3 0.000000 5.851000 0.949000 18.162001 # C3 PC
501 39 4 0.000000 9.367000 0.700000 18.292999 # C4 PC
502 39 5 0.000000 7.200000 -0.002000 16.775999 # H PC
503 39 5 0.000000 7.708000 2.255000 16.128000 # H PC
504 39 5 0.000000 7.693000 2.853000 17.808001 # H PC
505 39 5 0.000000 5.882000 1.613000 19.033001 # H PC
506 39 5 0.000000 5.178000 1.378000 17.415001 # H PC
507 39 5 0.000000 5.429000 -0.001000 18.510000 # H PC
508 40 7 0.000000 25.145000 5.267000 32.023998 # O1 PC
509 40 8 0.000000 24.113001 3.309000 31.617001 # O2 PC
510 40 9 0.000000 22.855000 5.157000 32.140999 # O3 PC
511 40 1 0.000000 26.117001 4.384000 31.475000 # C1 PC
512 40 2 0.000000 25.504000 3.037000 31.721001 # C2 PC
513 40 3 0.000000 27.459000 4.574000 32.153999 # C3 PC
514 40 4 0.000000 23.938000 4.627000 31.944000 # C4 PC
515 40 5 0.000000 26.201000 4.600000 30.403999 # H PC
516 40 5 0.000000 25.808001 2.298000 30.975000 # H PC
517 40 5 0.000000 25.702999 2.640000 32.722000 # H PC
518 40 5 0.000000 27.375999 4.444000 33.237999 # H PC
519 40 5 0.000000 28.201000 3.869000 31.768999 # H PC
520 40 5 0.000000 27.825001 5.594000 31.989000 # H PC
521 41 7 0.000000 28.360001 13.283000 29.818001 # O1 PC
522 41 8 0.000000 28.148001 12.553000 27.698999 # O2 PC
523 41 9 0.000000 28.406000 11.027000 29.393999 # O3 PC
524 41 1 0.000000 27.955000 14.395000 29.027000 # C1 PC
525 41 2 0.000000 28.334000 13.961000 27.642000 # C2 PC
526 41 3 0.000000 28.656000 15.660000 29.481001 # C3 PC
527 41 4 0.000000 28.312000 12.181000 29.007000 # C4 PC
528 41 5 0.000000 26.870001 14.504000 29.132999 # H PC
529 41 5 0.000000 27.691000 14.403000 26.875999 # H PC