LAMMPS data file. CGCMM style. atom_style full generated by VMD/TopoTools v1.8 on Fri Apr 18 11:46:41 EDT 2025
 150 atoms
 150 bonds
 0 angles
 0 dihedrals
 0 impropers
 7 atom types
 1 bond types
 0 angle types
 0 dihedral types
 0 improper types
 -0.108499 29.891501  xlo xhi
 0.841000 30.841000  ylo yhi
 -0.775000 29.225000  zlo zhi

# Pair Coeffs
#
# 1  C1
# 2  C2
# 3  C3
# 4  H
# 5  O1
# 6  O2
# 7  O3

# Bond Coeffs
#
# 1  

 Masses

 1 12.010700 # C1
 2 12.010700 # C2
 3 12.010700 # C3
 4 1.007940 # H
 5 15.999400 # O1
 6 15.999400 # O2
 7 15.999400 # O3

 Atoms # full

1 1 6 0.000000 22.959999 22.875000 10.778000 # O2 EC
2 1 7 0.000000 21.424000 22.691999 9.144000 # O3 EC
3 1 5 0.000000 22.912001 24.437000 9.098000 # O1 EC
4 1 2 0.000000 22.349001 21.601999 10.920000 # C2 EC
5 1 3 0.000000 21.073999 21.757000 10.155000 # C3 EC
6 1 1 0.000000 22.472000 23.427000 9.625000 # C1 EC
7 1 4 0.000000 22.181000 21.363001 11.974000 # H EC
8 1 4 0.000000 23.011999 20.848000 10.481000 # H EC
9 1 4 0.000000 20.730000 20.816999 9.716000 # H EC
10 1 4 0.000000 20.271000 22.186001 10.762000 # H EC
11 2 6 0.000000 2.766000 23.152000 1.898000 # O2 EC
12 2 7 0.000000 3.253000 20.955999 1.972000 # O3 EC
13 2 5 0.000000 1.062000 21.618999 1.802000 # O1 EC
14 2 2 0.000000 4.174000 23.031000 1.757000 # C2 EC
15 2 3 0.000000 4.445000 21.660999 2.289000 # C3 EC
16 2 1 0.000000 2.252000 21.885000 1.883000 # C1 EC
17 2 4 0.000000 4.692000 23.812000 2.320000 # H EC
18 2 4 0.000000 4.426000 23.125000 0.695000 # H EC
19 2 4 0.000000 5.313000 21.191000 1.820000 # H EC
20 2 4 0.000000 4.575000 21.652000 3.376000 # H EC
21 3 6 0.000000 16.315001 24.086000 13.458000 # O2 EC
22 3 7 0.000000 14.997000 22.677999 14.617000 # O3 EC
23 3 5 0.000000 16.510000 23.986000 15.742000 # O1 EC
24 3 2 0.000000 15.333000 23.597000 12.557000 # C2 EC
25 3 3 0.000000 14.841000 22.362000 13.241000 # C3 EC
26 3 1 0.000000 15.989000 23.617001 14.701000 # C1 EC
27 3 4 0.000000 15.769000 23.389000 11.577000 # H EC
28 3 4 0.000000 14.551000 24.356001 12.451000 # H EC
29 3 4 0.000000 13.796000 22.139000 13.008000 # H EC
30 3 4 0.000000 15.455000 21.483999 13.014000 # H EC
31 4 6 0.000000 6.745000 13.938000 1.482000 # O2 EC
32 4 7 0.000000 6.771000 16.115000 2.051000 # O3 EC
33 4 5 0.000000 5.226000 15.369000 0.527000 # O1 EC
34 4 2 0.000000 7.616000 14.068000 2.596000 # C2 EC
35 4 3 0.000000 7.945000 15.527000 2.592000 # C3 EC
36 4 1 0.000000 6.162000 15.160000 1.284000 # C1 EC
37 4 4 0.000000 8.500000 13.437000 2.478000 # H EC
38 4 4 0.000000 7.073000 13.764000 3.497000 # H EC
39 4 4 0.000000 8.151000 15.914000 3.593000 # H EC
40 4 4 0.000000 8.787000 15.764000 1.934000 # H EC
41 5 6 0.000000 26.775000 17.344999 18.077999 # O2 EC
42 5 7 0.000000 24.836000 17.551001 16.955000 # O3 EC
43 5 5 0.000000 25.698999 19.371000 18.055000 # O1 EC
44 5 2 0.000000 26.608999 16.162001 17.309999 # C2 EC
45 5 3 0.000000 25.145000 16.166000 17.004999 # C3 EC
46 5 1 0.000000 25.764000 18.195999 17.726000 # C1 EC
47 5 4 0.000000 26.919001 15.280000 17.875999 # H EC
48 5 4 0.000000 27.225000 16.246000 16.408001 # H EC
49 5 4 0.000000 24.912001 15.679000 16.055000 # H EC
50 5 4 0.000000 24.551001 15.706000 17.801001 # H EC
51 6 6 0.000000 5.502000 19.597000 12.413000 # O2 EC
52 6 7 0.000000 7.185000 19.062000 11.019000 # O3 EC
53 6 5 0.000000 5.691000 17.440001 11.655000 # O1 EC
54 6 2 0.000000 6.108000 20.813999 12.004000 # C2 EC
55 6 3 0.000000 7.447000 20.368000 11.511000 # C3 EC
56 6 1 0.000000 6.089000 18.594999 11.693000 # C1 EC
57 6 4 0.000000 6.180000 21.516001 12.839000 # H EC
58 6 4 0.000000 5.496000 21.257999 11.212000 # H EC
59 6 4 0.000000 7.840000 21.011999 10.719000 # H EC
60 6 4 0.000000 8.187000 20.295000 12.315000 # H EC
61 7 6 0.000000 24.033001 20.892000 3.672000 # O2 EC
62 7 7 0.000000 23.790001 23.129000 3.661000 # O3 EC
63 7 5 0.000000 25.496000 22.176001 2.457000 # O1 EC
64 7 2 0.000000 22.784000 21.179001 4.283000 # C2 EC
65 7 3 0.000000 22.924000 22.618000 4.664000 # C3 EC
66 7 1 0.000000 24.528000 22.073999 3.196000 # C1 EC
67 7 4 0.000000 22.611000 20.530001 5.145000 # H EC
68 7 4 0.000000 21.992001 21.016001 3.544000 # H EC
69 7 4 0.000000 21.968000 23.149000 4.662000 # H EC
70 7 4 0.000000 23.405001 22.747999 5.638000 # H EC
71 8 6 0.000000 28.469999 7.577000 10.182000 # O2 EC
72 8 7 0.000000 26.377001 6.832000 9.825000 # O3 EC
73 8 5 0.000000 26.809000 9.082000 9.692000 # O1 EC
74 8 2 0.000000 28.541000 6.162000 10.086000 # C2 EC
75 8 3 0.000000 27.128000 5.741000 10.337000 # C3 EC
76 8 1 0.000000 27.184000 7.935000 9.883000 # C1 EC
77 8 4 0.000000 29.239000 5.754000 10.821000 # H EC
78 8 4 0.000000 28.884001 5.900000 9.079000 # H EC
79 8 4 0.000000 26.868999 4.812000 9.822000 # H EC
80 8 4 0.000000 26.906000 5.636000 11.404000 # H EC
81 9 6 0.000000 9.849000 10.061000 14.021000 # O2 EC
82 9 7 0.000000 7.627000 10.388000 14.154000 # O3 EC
83 9 5 0.000000 8.535000 9.615000 12.194000 # O1 EC
84 9 2 0.000000 9.544000 10.300000 15.387000 # C2 EC
85 9 3 0.000000 8.206000 10.964000 15.317000 # C3 EC
86 9 1 0.000000 8.660000 9.987000 13.351000 # C1 EC
87 9 4 0.000000 10.304000 10.932000 15.854000 # H EC
88 9 4 0.000000 9.507000 9.337000 15.907000 # H EC
89 9 4 0.000000 7.591000 10.766000 16.198999 # H EC
90 9 4 0.000000 8.283000 12.046000 15.168000 # H EC
91 10 6 0.000000 15.961000 26.374001 17.827000 # O2 EC
92 10 7 0.000000 17.440001 24.709000 18.150000 # O3 EC
93 10 5 0.000000 15.264000 24.430000 18.826000 # O1 EC
94 10 2 0.000000 17.138000 26.716000 17.110001 # C2 EC
95 10 3 0.000000 18.179001 25.854000 17.750000 # C3 EC
96 10 1 0.000000 16.142000 25.108999 18.313999 # C1 EC
97 10 4 0.000000 17.358000 27.782000 17.204000 # H EC
98 10 4 0.000000 16.983000 26.471001 16.052999 # H EC
99 10 4 0.000000 18.980000 25.580000 17.059000 # H EC
100 10 4 0.000000 18.615000 26.316999 18.641001 # H EC
101 11 6 0.000000 9.984000 8.440000 17.930000 # O2 EC
102 11 7 0.000000 10.636000 10.582000 18.153000 # O3 EC
103 11 5 0.000000 8.396000 10.093000 18.041000 # O1 EC
104 11 2 0.000000 11.375000 8.426000 18.215000 # C2 EC
105 11 3 0.000000 11.799000 9.817000 17.870001 # C3 EC
106 11 1 0.000000 9.566000 9.737000 18.041000 # C1 EC
107 11 4 0.000000 11.889000 7.669000 17.617001 # H EC
108 11 4 0.000000 11.509000 8.198000 19.278000 # H EC
109 11 4 0.000000 12.647000 10.160000 18.469000 # H EC
110 11 4 0.000000 12.040000 9.930000 16.808001 # H EC
111 12 6 0.000000 27.037001 17.344000 26.820000 # O2 EC
112 12 7 0.000000 26.250000 18.916000 25.415001 # O3 EC
113 12 5 0.000000 26.736000 16.823999 24.605000 # O1 EC
114 12 2 0.000000 26.601000 18.436001 27.615999 # C2 EC
115 12 3 0.000000 26.562000 19.566000 26.638000 # C3 EC
116 12 1 0.000000 26.680000 17.622000 25.528999 # C1 EC
117 12 4 0.000000 27.292000 18.618000 28.443001 # H EC
118 12 4 0.000000 25.611000 18.197001 28.020000 # H EC
119 12 4 0.000000 25.804001 20.313000 26.888000 # H EC
120 12 4 0.000000 27.533001 20.061001 26.531000 # H EC
121 13 6 0.000000 13.381000 13.020000 13.585000 # O2 EC
122 13 7 0.000000 13.832000 10.920000 14.256000 # O3 EC
123 13 5 0.000000 15.559000 12.401000 13.957000 # O1 EC
124 13 2 0.000000 12.141000 12.413000 13.918000 # C2 EC
125 13 3 0.000000 12.464000 10.954000 13.875000 # C3 EC
126 13 1 0.000000 14.366000 12.138000 13.935000 # C1 EC
127 13 4 0.000000 11.363000 12.694000 13.204000 # H EC
128 13 4 0.000000 11.850000 12.748000 14.920000 # H EC
129 13 4 0.000000 11.851000 10.367000 14.565000 # H EC
130 13 4 0.000000 12.373000 10.535000 12.868000 # H EC
131 14 6 0.000000 18.132999 4.420000 5.713000 # O2 EC
132 14 7 0.000000 16.254000 5.580000 6.145000 # O3 EC
133 14 5 0.000000 16.452999 4.463000 4.151000 # O1 EC
134 14 2 0.000000 18.180000 4.795000 7.081000 # C2 EC
135 14 3 0.000000 17.198000 5.920000 7.151000 # C3 EC
136 14 1 0.000000 16.906000 4.791000 5.237000 # C1 EC
137 14 4 0.000000 19.188999 5.098000 7.370000 # H EC
138 14 4 0.000000 17.874001 3.935000 7.687000 # H EC
139 14 4 0.000000 16.716000 5.998000 8.129000 # H EC
140 14 4 0.000000 17.648001 6.885000 6.894000 # H EC
141 15 6 0.000000 3.502000 8.184000 19.849001 # O2 EC
142 15 7 0.000000 1.918000 9.150000 21.122000 # O3 EC
143 15 5 0.000000 1.618000 6.994000 20.395000 # O1 EC
144 15 2 0.000000 4.048000 9.397000 20.346001 # C2 EC
145 15 3 0.000000 2.832000 10.170000 20.745001 # C3 EC
146 15 1 0.000000 2.286000 8.016000 20.450001 # C1 EC
147 15 4 0.000000 4.637000 9.905000 19.577999 # H EC
148 15 4 0.000000 4.694000 9.162000 21.198999 # H EC
149 15 4 0.000000 3.021000 10.852000 21.577000 # H EC
150 15 4 0.000000 2.401000 10.732000 19.910000 # H EC

 Bonds

1 1 1 4
2 1 1 6
3 1 2 6
4 1 2 5
5 1 3 6
6 1 4 8
7 1 4 7
8 1 4 5
9 1 5 9
10 1 5 10
11 1 11 14
12 1 11 16
13 1 12 15
14 1 12 16
15 1 13 16
16 1 14 17
17 1 14 18
18 1 14 15
19 1 15 19
20 1 15 20
21 1 21 26
22 1 21 24
23 1 22 25
24 1 22 26
25 1 23 26
26 1 24 27
27 1 24 28
28 1 24 25
29 1 25 29
30 1 25 30
31 1 31 36
32 1 31 34
33 1 32 36
34 1 32 35
35 1 33 36
36 1 34 37
37 1 34 35
38 1 34 38
39 1 35 40
40 1 35 39
41 1 41 44
42 1 41 46
43 1 42 46
44 1 42 45
45 1 43 46
46 1 44 47
47 1 44 45
48 1 44 48
49 1 45 49
50 1 45 50
51 1 51 56
52 1 51 54
53 1 52 55
54 1 52 56
55 1 53 56
56 1 54 58
57 1 54 55
58 1 54 57
59 1 55 59
60 1 55 60
61 1 61 66
62 1 61 64
63 1 62 66
64 1 62 65
65 1 63 66
66 1 64 68
67 1 64 67
68 1 64 65
69 1 65 69
70 1 65 70
71 1 71 74
72 1 71 76
73 1 72 75
74 1 72 76
75 1 73 76
76 1 74 78
77 1 74 75
78 1 74 77
79 1 75 79
80 1 75 80
81 1 81 86
82 1 81 84
83 1 82 86
84 1 82 85
85 1 83 86
86 1 84 87
87 1 84 85
88 1 84 88
89 1 85 89
90 1 85 90
91 1 91 96
92 1 91 94
93 1 92 95
94 1 92 96
95 1 93 96
96 1 94 98
97 1 94 97
98 1 94 95
99 1 95 99
100 1 95 100
101 1 101 106
102 1 101 104
103 1 102 105
104 1 102 106
105 1 103 106
106 1 104 107
107 1 104 105
108 1 104 108
109 1 105 110
110 1 105 109
111 1 111 116
112 1 111 114
113 1 112 115
114 1 112 116
115 1 113 116
116 1 114 115
117 1 114 117
118 1 114 118
119 1 115 120
120 1 115 119
121 1 121 126
122 1 121 124
123 1 122 125
124 1 122 126
125 1 123 126
126 1 124 125
127 1 124 127
128 1 124 128
129 1 125 129
130 1 125 130
131 1 131 136
132 1 131 134
133 1 132 136
134 1 132 135
135 1 133 136
136 1 134 135
137 1 134 137
138 1 134 138
139 1 135 139
140 1 135 140
141 1 141 144
142 1 141 146
143 1 142 146
144 1 142 145
145 1 143 146
146 1 144 147
147 1 144 148
148 1 144 145
149 1 145 150
150 1 145 149

