LAMMPS data file. CGCMM style. atom_style full generated by VMD/TopoTools v1.8 on Fri Apr 18 17:15:02 EDT 2025
 4027 atoms
 4000 bonds
 6800 angles
 7600 dihedrals
 0 impropers
 8 atom types
 1 bond types
 13 angle types
 12 dihedral types
 0 improper types
 -2.265000 37.735000  xlo xhi
 -2.411999 37.588001  ylo yhi
 -2.250499 37.749501  zlo zhi

# Pair Coeffs
#
# 1  C1
# 2  C2
# 3  C3
# 4  H
# 5  Li
# 6  O1
# 7  O2
# 8  O3

# Bond Coeffs
#
# 1  

# Angle Coeffs
#
# 1  C1-O2-C2
# 2  C1-O3-C3
# 3  C2-C3-H
# 4  C2-C3-O3
# 5  C3-C2-H
# 6  C3-C2-O2
# 7  H-C2-H
# 8  H-C2-O2
# 9  H-C3-H
# 10  H-C3-O3
# 11  O1-C1-O2
# 12  O1-C1-O3
# 13  O2-C1-O3

# Dihedral Coeffs
#
# 1  C2-C3-O3-C1
# 2  C3-C2-O2-C1
# 3  H-C2-C3-H
# 4  H-C2-C3-O3
# 5  H-C2-O2-C1
# 6  H-C3-O3-C1
# 7  O1-C1-O2-C2
# 8  O1-C1-O3-C3
# 9  O2-C1-O3-C3
# 10  O2-C2-C3-H
# 11  O2-C2-C3-O3
# 12  O3-C1-O2-C2

 Masses

 1 12.010700 # C1
 2 12.010700 # C2
 3 12.010700 # C3
 4 1.007940 # H
 5 6.941000 # Li
 6 15.999400 # O1
 7 15.999400 # O2
 8 15.999400 # O3

 Atoms # full

1 1 7 0.000000 1.905000 33.574001 3.622000 # O2 EC
2 1 8 0.000000 0.990000 33.598000 5.678000 # O3 EC
3 1 6 0.000000 1.985000 35.500999 4.866000 # O1 EC
4 1 2 0.000000 1.164000 32.372002 3.763000 # C2 EC
5 1 3 0.000000 1.015000 32.245998 5.245000 # C3 EC
6 1 1 0.000000 1.657000 34.331001 4.734000 # C1 EC
7 1 4 0.000000 1.699000 31.528000 3.321000 # H EC
8 1 4 0.000000 0.202000 32.495998 3.254000 # H EC
9 1 4 0.000000 0.096000 31.726999 5.533000 # H EC
10 1 4 0.000000 1.871000 31.747000 5.711000 # H EC
11 2 7 0.000000 12.983000 34.096001 16.055000 # O2 EC
12 2 8 0.000000 14.086000 32.201000 15.548000 # O3 EC
13 2 6 0.000000 14.344000 33.132000 17.629999 # O1 EC
14 2 2 0.000000 12.459000 33.625000 14.822000 # C2 EC
15 2 3 0.000000 13.527000 32.696999 14.340000 # C3 EC
16 2 1 0.000000 13.849000 33.141998 16.513000 # C1 EC
17 2 4 0.000000 12.276000 34.452000 14.132000 # H EC
18 2 4 0.000000 11.514000 33.106998 15.022000 # H EC
19 2 4 0.000000 13.132000 31.882000 13.729000 # H EC
20 2 4 0.000000 14.313000 33.217999 13.782000 # H EC
21 3 7 0.000000 16.235001 17.907000 3.415000 # O2 EC
22 3 8 0.000000 15.017000 17.851999 5.307000 # O3 EC
23 3 6 0.000000 16.478001 19.587999 4.959000 # O1 EC
24 3 2 0.000000 15.264000 16.884001 3.257000 # C2 EC
25 3 3 0.000000 14.852000 16.596001 4.665000 # C3 EC
26 3 1 0.000000 15.958000 18.544001 4.593000 # C1 EC
27 3 4 0.000000 15.692000 16.011999 2.757000 # H EC
28 3 4 0.000000 14.440000 17.278000 2.652000 # H EC
29 3 4 0.000000 13.817000 16.252001 4.739000 # H EC
30 3 4 0.000000 15.509000 15.867000 5.152000 # H EC
31 4 7 0.000000 11.982000 31.613001 23.482000 # O2 EC
32 4 8 0.000000 13.383000 31.222000 25.198999 # O3 EC
33 4 6 0.000000 11.314000 32.124001 25.617001 # O1 EC
34 4 2 0.000000 13.062000 30.844999 22.973000 # C2 EC
35 4 3 0.000000 14.127000 31.047001 24.003000 # C3 EC
36 4 1 0.000000 12.150000 31.691999 24.837000 # C1 EC
37 4 4 0.000000 13.362000 31.197001 21.983000 # H EC
38 4 4 0.000000 12.742000 29.799999 22.902000 # H EC
39 4 4 0.000000 14.802000 30.191000 24.084000 # H EC
40 4 4 0.000000 14.716000 31.952999 23.823999 # H EC
41 5 7 0.000000 21.023001 18.172001 28.068001 # O2 EC
42 5 8 0.000000 19.299000 16.728001 27.980000 # O3 EC
43 5 6 0.000000 21.400999 15.943000 28.462999 # O1 EC
44 5 2 0.000000 19.834999 18.945000 27.997000 # C2 EC
45 5 3 0.000000 18.834999 17.968000 27.466000 # C3 EC
46 5 1 0.000000 20.643999 16.864000 28.195000 # C1 EC
47 5 4 0.000000 19.968000 19.809000 27.341000 # H EC
48 5 4 0.000000 19.586000 19.292999 29.004999 # H EC
49 5 4 0.000000 17.818001 18.177999 27.809999 # H EC
50 5 4 0.000000 18.840000 17.916000 26.372000 # H EC
51 6 7 0.000000 28.371000 15.747000 25.297001 # O2 EC
52 6 8 0.000000 26.861000 16.645000 26.702999 # O3 EC
53 6 6 0.000000 26.415001 14.623000 25.712999 # O1 EC
54 6 2 0.000000 28.999001 16.849001 25.936001 # C2 EC
55 6 3 0.000000 27.839001 17.643000 26.445000 # C3 EC
56 6 1 0.000000 27.149000 15.584000 25.888000 # C1 EC
57 6 4 0.000000 29.617001 17.410000 25.230000 # H EC
58 6 4 0.000000 29.632000 16.466000 26.743999 # H EC
59 6 4 0.000000 28.077999 18.200001 27.354000 # H EC
60 6 4 0.000000 27.441999 18.333000 25.693001 # H EC
61 7 7 0.000000 14.065000 32.687000 30.157000 # O2 EC
62 7 8 0.000000 14.821000 34.805000 30.072001 # O3 EC
63 7 6 0.000000 16.121000 33.183998 31.047001 # O1 EC
64 7 2 0.000000 13.190000 33.409000 29.304001 # C2 EC
65 7 3 0.000000 13.456000 34.831001 29.681000 # C3 EC
66 7 1 0.000000 15.096000 33.527000 30.476999 # C1 EC
67 7 4 0.000000 12.150000 33.117001 29.471001 # H EC
68 7 4 0.000000 13.462000 33.194000 28.264999 # H EC
69 7 4 0.000000 13.301000 35.522999 28.849001 # H EC
70 7 4 0.000000 12.855000 35.157001 30.535999 # H EC
71 8 7 0.000000 12.803000 17.086000 27.018000 # O2 EC
72 8 8 0.000000 11.138000 15.735000 26.332001 # O3 EC
73 8 6 0.000000 11.107000 17.952000 25.737000 # O1 EC
74 8 2 0.000000 13.196000 15.754000 27.315001 # C2 EC
75 8 3 0.000000 11.899000 15.011000 27.288000 # C3 EC
76 8 1 0.000000 11.635000 17.010000 26.309999 # C1 EC
77 8 4 0.000000 13.693000 15.700000 28.287001 # H EC
78 8 4 0.000000 13.889000 15.416000 26.537001 # H EC
79 8 4 0.000000 12.019000 13.968000 26.982000 # H EC
80 8 4 0.000000 11.376000 15.047000 28.249001 # H EC
81 9 7 0.000000 14.532000 25.195000 15.300000 # O2 EC
82 9 8 0.000000 14.122000 27.097000 14.171000 # O3 EC
83 9 6 0.000000 16.094999 25.980000 13.816000 # O1 EC
84 9 2 0.000000 13.171000 25.530001 15.527000 # C2 EC
85 9 3 0.000000 13.123000 26.982000 15.174000 # C3 EC
86 9 1 0.000000 15.015000 26.080999 14.378000 # C1 EC
87 9 4 0.000000 12.888000 25.339001 16.565001 # H EC
88 9 4 0.000000 12.548000 24.917000 14.865000 # H EC
89 9 4 0.000000 12.147000 27.290001 14.790000 # H EC
90 9 4 0.000000 13.398000 27.625999 16.014999 # H EC
91 10 7 0.000000 7.700000 24.171000 33.160000 # O2 EC
92 10 8 0.000000 8.070000 24.173000 35.380001 # O3 EC
93 10 6 0.000000 7.917000 22.172001 34.265999 # O1 EC
94 10 2 0.000000 7.987000 25.510000 33.535000 # C2 EC
95 10 3 0.000000 7.739000 25.503000 35.008999 # C3 EC
96 10 1 0.000000 7.897000 23.393999 34.268002 # C1 EC
97 10 4 0.000000 7.341000 26.212999 33.001999 # H EC
98 10 4 0.000000 9.033000 25.723000 33.286999 # H EC
99 10 4 0.000000 8.363000 26.225000 35.543999 # H EC
100 10 4 0.000000 6.688000 25.683001 35.257999 # H EC
101 11 7 0.000000 27.139000 25.381001 0.452000 # O2 EC
102 11 8 0.000000 27.250999 25.058001 2.676000 # O3 EC
103 11 6 0.000000 25.816000 26.642000 1.840000 # O1 EC
104 11 2 0.000000 27.903999 24.204000 0.665000 # C2 EC
105 11 3 0.000000 28.326000 24.336000 2.093000 # C3 EC
106 11 1 0.000000 26.658001 25.773001 1.671000 # C1 EC
107 11 4 0.000000 28.752001 24.158001 -0.022000 # H EC
108 11 4 0.000000 27.257000 23.334999 0.499000 # H EC
109 11 4 0.000000 28.459000 23.368999 2.584000 # H EC
110 11 4 0.000000 29.242001 24.924999 2.206000 # H EC
111 12 7 0.000000 25.423000 29.601000 30.591999 # O2 EC
112 12 8 0.000000 27.413000 30.622999 30.347000 # O3 EC
113 12 6 0.000000 26.540001 29.424999 28.594999 # O1 EC
114 12 2 0.000000 25.597000 30.450001 31.716999 # C2 EC
115 12 3 0.000000 27.073000 30.691999 31.725000 # C3 EC
116 12 1 0.000000 26.465000 29.844999 29.740999 # C1 EC
117 12 4 0.000000 25.245001 29.966000 32.631001 # H EC
118 12 4 0.000000 25.023001 31.368000 31.549999 # H EC
119 12 4 0.000000 27.337000 31.666000 32.144001 # H EC
120 12 4 0.000000 27.622000 29.909000 32.257999 # H EC
121 13 7 0.000000 24.638000 20.584999 15.552000 # O2 EC
122 13 8 0.000000 25.002001 19.143999 17.242001 # O3 EC
123 13 6 0.000000 26.143000 21.134001 17.195000 # O1 EC
124 13 2 0.000000 23.643999 19.576000 15.461000 # C2 EC
125 13 3 0.000000 24.229000 18.459999 16.266001 # C3 EC
126 13 1 0.000000 25.334999 20.358999 16.707001 # C1 EC
127 13 4 0.000000 23.465000 19.295000 14.421000 # H EC
128 13 4 0.000000 22.716000 19.962999 15.895000 # H EC
129 13 4 0.000000 23.465000 17.837000 16.739000 # H EC
130 13 4 0.000000 24.896999 17.823999 15.676000 # H EC
131 14 7 0.000000 15.291000 7.903000 8.314000 # O2 EC
132 14 8 0.000000 15.725000 6.720000 6.449000 # O3 EC
133 14 6 0.000000 15.939000 5.710000 8.499000 # O1 EC
134 14 2 0.000000 14.850000 8.683000 7.212000 # C2 EC
135 14 3 0.000000 15.589000 8.080000 6.061000 # C3 EC
136 14 1 0.000000 15.675000 6.688000 7.816000 # C1 EC
137 14 4 0.000000 15.090000 9.739000 7.359000 # H EC
138 14 4 0.000000 13.765000 8.569000 7.119000 # H EC
139 14 4 0.000000 15.041000 8.164000 5.119000 # H EC
140 14 4 0.000000 16.589001 8.507000 5.936000 # H EC
141 15 7 0.000000 13.923000 30.223000 19.787001 # O2 EC
142 15 8 0.000000 13.885000 28.660999 21.406000 # O3 EC
143 15 6 0.000000 11.908000 29.558001 20.659000 # O1 EC
144 15 2 0.000000 15.233000 29.681999 19.875999 # C2 EC
145 15 3 0.000000 15.239000 29.049999 21.231001 # C3 EC
146 15 1 0.000000 13.128000 29.487000 20.621000 # C1 EC
147 15 4 0.000000 15.988000 30.465000 19.771999 # H EC
148 15 4 0.000000 15.360000 28.948999 19.070999 # H EC
149 15 4 0.000000 15.905000 28.184999 21.288000 # H EC
150 15 4 0.000000 15.503000 29.760000 22.021999 # H EC
151 16 7 0.000000 15.129000 20.784000 0.278000 # O2 EC
152 16 8 0.000000 17.291000 20.997000 0.864000 # O3 EC
153 16 6 0.000000 16.176001 22.806000 -0.002000 # O1 EC
154 16 2 0.000000 15.484000 19.610001 0.993000 # C2 EC
155 16 3 0.000000 16.976999 19.612000 0.913000 # C3 EC
156 16 1 0.000000 16.195999 21.635000 0.348000 # C1 EC
157 16 4 0.000000 15.039000 18.723000 0.537000 # H EC
158 16 4 0.000000 15.120000 19.708000 2.022000 # H EC
159 16 4 0.000000 17.445999 19.136000 1.778000 # H EC
160 16 4 0.000000 17.348000 19.139000 -0.002000 # H EC
161 17 7 0.000000 23.650999 6.032000 34.234001 # O2 EC
162 17 8 0.000000 22.295000 4.336000 34.821999 # O3 EC
163 17 6 0.000000 24.556999 3.973000 34.683998 # O1 EC
164 17 2 0.000000 22.365999 6.588000 34.473000 # C2 EC
165 17 3 0.000000 21.466000 5.398000 34.374001 # C3 EC
166 17 1 0.000000 23.589001 4.713000 34.589001 # C1 EC
167 17 4 0.000000 22.129000 7.358000 33.735001 # H EC
168 17 4 0.000000 22.362000 7.034000 35.473000 # H EC
169 17 4 0.000000 20.576000 5.491000 35.000999 # H EC
170 17 4 0.000000 21.160000 5.190000 33.342999 # H EC
171 18 7 0.000000 7.732000 4.422000 33.365002 # O2 EC
172 18 8 0.000000 8.588000 6.256000 34.348000 # O3 EC
173 18 6 0.000000 8.907000 4.203000 35.324001 # O1 EC
174 18 2 0.000000 7.599000 5.492000 32.441002 # C2 EC
175 18 3 0.000000 7.724000 6.700000 33.312000 # C3 EC
176 18 1 0.000000 8.450000 4.897000 34.426998 # C1 EC
177 18 4 0.000000 6.638000 5.444000 31.923000 # H EC
178 18 4 0.000000 8.408000 5.419000 31.707001 # H EC
179 18 4 0.000000 8.154000 7.556000 32.785000 # H EC
180 18 4 0.000000 6.769000 6.996000 33.757999 # H EC
181 19 7 0.000000 23.955000 23.827000 32.347000 # O2 EC
182 19 8 0.000000 24.608000 22.445000 33.998001 # O3 EC
183 19 6 0.000000 26.011000 22.816999 32.221001 # O1 EC
184 19 2 0.000000 23.021000 23.972000 33.407001 # C2 EC
185 19 3 0.000000 23.231001 22.726999 34.207001 # C3 EC
186 19 1 0.000000 24.954000 23.011999 32.801998 # C1 EC
187 19 4 0.000000 22.002001 24.058001 33.021999 # H EC
188 19 4 0.000000 23.271999 24.879000 33.967999 # H EC
189 19 4 0.000000 23.018999 22.870001 35.270000 # H EC
190 19 4 0.000000 22.642000 21.884001 33.833000 # H EC
191 20 7 0.000000 1.828000 4.713000 7.462000 # O2 EC
192 20 8 0.000000 0.345000 4.945000 9.138000 # O3 EC
193 20 6 0.000000 0.013000 3.313000 7.559000 # O1 EC
194 20 2 0.000000 2.398000 5.611000 8.402000 # C2 EC
195 20 3 0.000000 1.210000 6.071000 9.185000 # C3 EC
196 20 1 0.000000 0.669000 4.239000 8.012000 # C1 EC
197 20 4 0.000000 2.913000 6.432000 7.898000 # H EC
198 20 4 0.000000 3.116000 5.059000 9.018000 # H EC
199 20 4 0.000000 1.460000 6.329000 10.217000 # H EC
200 20 4 0.000000 0.702000 6.920000 8.715000 # H EC
201 21 7 0.000000 28.548000 22.452000 20.540001 # O2 EC
202 21 8 0.000000 27.365999 20.895000 21.656000 # O3 EC
203 21 6 0.000000 29.650000 20.948999 21.879000 # O1 EC
204 21 2 0.000000 27.177000 22.799000 20.415001 # C2 EC
205 21 3 0.000000 26.479000 21.517000 20.738001 # C3 EC
206 21 1 0.000000 28.615999 21.392000 21.402000 # C1 EC
207 21 4 0.000000 26.955000 23.158001 19.407000 # H EC
208 21 4 0.000000 26.952999 23.591999 21.136999 # H EC
209 21 4 0.000000 25.497000 21.676001 21.191000 # H EC
210 21 4 0.000000 26.371000 20.868000 19.863001 # H EC
211 22 7 0.000000 2.992000 9.943000 7.624000 # O2 EC
212 22 8 0.000000 1.861000 11.755000 6.917000 # O3 EC
213 22 6 0.000000 4.059000 11.492000 6.311000 # O1 EC
214 22 2 0.000000 1.623000 9.727000 7.934000 # C2 EC
215 22 3 0.000000 1.052000 11.108000 7.889000 # C3 EC
216 22 1 0.000000 3.062000 11.099000 6.897000 # C1 EC
217 22 4 0.000000 1.513000 9.258000 8.914000 # H EC
218 22 4 0.000000 1.194000 9.071000 7.169000 # H EC
219 22 4 0.000000 -0.000000 11.119000 7.591000 # H EC
220 22 4 0.000000 1.161000 11.638000 8.841000 # H EC
221 23 7 0.000000 11.055000 10.608000 35.500000 # O2 EC
222 23 8 0.000000 9.236000 9.754000 34.487000 # O3 EC
223 23 6 0.000000 9.142000 11.869000 35.374001 # O1 EC
224 23 2 0.000000 11.463000 9.416000 34.846001 # C2 EC
225 23 3 0.000000 10.171000 8.695000 34.633999 # C3 EC
226 23 1 0.000000 9.755000 10.838000 35.141998 # C1 EC
227 23 4 0.000000 12.164000 8.851000 35.464001 # H EC
228 23 4 0.000000 11.950000 9.688000 33.903000 # H EC
229 23 4 0.000000 10.184000 8.059000 33.744999 # H EC
230 23 4 0.000000 9.880000 8.093000 35.501999 # H EC
231 24 7 0.000000 24.716999 16.573999 27.150000 # O2 EC
232 24 8 0.000000 23.226999 17.187000 28.719999 # O3 EC
233 24 6 0.000000 23.344999 14.987000 28.079000 # O1 EC
234 24 2 0.000000 25.025999 17.910000 27.518000 # C2 EC
235 24 3 0.000000 23.757999 18.378000 28.158001 # C3 EC
236 24 1 0.000000 23.728001 16.143999 27.990999 # C1 EC
237 24 4 0.000000 25.301001 18.504000 26.643999 # H EC
238 24 4 0.000000 25.865999 17.889999 28.219999 # H EC
239 24 4 0.000000 23.930000 19.132000 28.931000 # H EC
240 24 4 0.000000 23.041000 18.768999 27.429001 # H EC
241 25 7 0.000000 28.945000 20.174999 19.417999 # O2 EC
242 25 8 0.000000 31.077999 20.162001 20.134001 # O3 EC
243 25 6 0.000000 29.631001 18.545000 20.879999 # O1 EC
244 25 2 0.000000 29.657000 21.114000 18.625999 # C2 EC
245 25 3 0.000000 30.872000 21.391001 19.451000 # C3 EC
246 25 1 0.000000 29.863001 19.537001 20.205000 # C1 EC
247 25 4 0.000000 29.056999 22.010000 18.445999 # H EC
248 25 4 0.000000 29.900000 20.645000 17.666000 # H EC
249 25 4 0.000000 31.743000 21.650999 18.844000 # H EC
250 25 4 0.000000 30.704000 22.177999 20.194000 # H EC
251 26 7 0.000000 1.580000 17.285000 21.945000 # O2 EC
252 26 8 0.000000 0.644000 19.295000 21.559999 # O3 EC
253 26 6 0.000000 1.394000 18.044001 19.788000 # O1 EC
254 26 2 0.000000 0.999000 17.716000 23.167000 # C2 EC
255 26 3 0.000000 0.848000 19.188999 22.961000 # C3 EC
256 26 1 0.000000 1.222000 18.194000 20.988001 # C1 EC
257 26 4 0.000000 1.644000 17.473000 24.014999 # H EC
258 26 4 0.000000 0.035000 17.209999 23.290001 # H EC
259 26 4 0.000000 0.001000 19.607000 23.511999 # H EC
260 26 4 0.000000 1.756000 19.743000 23.223000 # H EC
261 27 7 0.000000 21.570999 8.366000 17.735001 # O2 EC
262 27 8 0.000000 19.618999 9.384000 17.268999 # O3 EC
263 27 6 0.000000 21.362000 10.620000 18.107000 # O1 EC
264 27 2 0.000000 20.775000 7.434000 17.018000 # C2 EC
265 27 3 0.000000 19.393999 7.985000 17.177999 # C3 EC
266 27 1 0.000000 20.893999 9.554000 17.737000 # C1 EC
267 27 4 0.000000 20.879000 6.429000 17.433001 # H EC
268 27 4 0.000000 21.105000 7.428000 15.973000 # H EC
269 27 4 0.000000 18.746000 7.747000 16.330999 # H EC
270 27 4 0.000000 18.915001 7.649000 18.103001 # H EC
271 28 7 0.000000 24.691999 7.760000 27.132000 # O2 EC
272 28 8 0.000000 24.316999 9.867000 26.437000 # O3 EC
273 28 6 0.000000 23.841999 8.117000 25.030001 # O1 EC
274 28 2 0.000000 24.837999 8.604000 28.263000 # C2 EC
275 28 3 0.000000 25.055000 9.950000 27.648001 # C3 EC
276 28 1 0.000000 24.247000 8.542000 26.101999 # C1 EC
277 28 4 0.000000 25.679001 8.285000 28.884001 # H EC
278 28 4 0.000000 23.916000 8.557000 28.853001 # H EC
279 28 4 0.000000 24.684999 10.764000 28.275999 # H EC
280 28 4 0.000000 26.106001 10.133000 27.402000 # H EC
281 29 7 0.000000 1.927000 21.532000 12.718000 # O2 EC
282 29 8 0.000000 3.098000 23.368000 13.283000 # O3 EC
283 29 6 0.000000 1.079000 23.605000 12.219000 # O1 EC
284 29 2 0.000000 2.988000 21.107000 13.560000 # C2 EC
285 29 3 0.000000 3.950000 22.249001 13.484000 # C3 EC
286 29 1 0.000000 1.955000 22.899000 12.697000 # C1 EC
287 29 4 0.000000 3.419000 20.169001 13.204000 # H EC
288 29 4 0.000000 2.591000 20.961000 14.571000 # H EC
289 29 4 0.000000 4.539000 22.365000 14.398000 # H EC
290 29 4 0.000000 4.627000 22.170000 12.628000 # H EC
291 30 7 0.000000 8.122000 24.384001 30.941999 # O2 EC
292 30 8 0.000000 8.296000 22.648001 29.520000 # O3 EC
293 30 6 0.000000 6.261000 23.128000 30.466999 # O1 EC
294 30 2 0.000000 9.403000 24.468000 30.334999 # C2 EC
295 30 3 0.000000 9.616000 23.083000 29.815001 # C3 EC
296 30 1 0.000000 7.452000 23.365000 30.323000 # C1 EC
297 30 4 0.000000 10.162000 24.767000 31.061001 # H EC
298 30 4 0.000000 9.358000 25.214001 29.533001 # H EC
299 30 4 0.000000 10.243000 23.061001 28.920000 # H EC
300 30 4 0.000000 10.043000 22.414000 30.569000 # H EC
301 31 7 0.000000 19.139999 33.251999 28.415001 # O2 EC
302 31 8 0.000000 19.507000 35.160999 27.283001 # O3 EC
303 31 6 0.000000 17.785999 35.063999 28.798000 # O1 EC
304 31 2 0.000000 20.386000 33.109001 27.749001 # C2 EC
305 31 3 0.000000 20.315001 34.158001 26.686001 # C3 EC
306 31 1 0.000000 18.725000 34.540001 28.219000 # C1 EC
307 31 4 0.000000 20.497999 32.102001 27.340000 # H EC
308 31 4 0.000000 21.188000 33.297001 28.469999 # H EC
309 31 4 0.000000 21.299000 34.554001 26.420000 # H EC
310 31 4 0.000000 19.813999 33.801998 25.778999 # H EC
311 32 7 0.000000 11.485000 25.632000 19.252001 # O2 EC
312 32 8 0.000000 10.297000 24.535000 17.687000 # O3 EC
313 32 6 0.000000 11.939000 23.421000 18.840000 # O1 EC
314 32 2 0.000000 10.402000 26.473000 18.882999 # C2 EC
315 32 3 0.000000 9.982000 25.914000 17.562000 # C3 EC
316 32 1 0.000000 11.299000 24.437000 18.614000 # C1 EC
317 32 4 0.000000 10.722000 27.516001 18.816999 # H EC
318 32 4 0.000000 9.619000 26.384001 19.643999 # H EC
319 32 4 0.000000 8.916000 26.055000 17.365999 # H EC
320 32 4 0.000000 10.559000 26.329000 16.729000 # H EC
321 33 7 0.000000 27.403999 33.583000 21.551001 # O2 EC
322 33 8 0.000000 26.551001 31.805000 20.466999 # O3 EC
323 33 6 0.000000 25.129999 33.279999 21.503000 # O1 EC
324 33 2 0.000000 28.466000 32.993999 20.816000 # C2 EC
325 33 3 0.000000 27.955999 31.614000 20.545000 # C3 EC
326 33 1 0.000000 26.259001 32.922001 21.201000 # C1 EC
327 33 4 0.000000 29.392000 32.993999 21.396000 # H EC
328 33 4 0.000000 28.615999 33.573002 19.898001 # H EC
329 33 4 0.000000 28.346001 31.198000 19.612000 # H EC
330 33 4 0.000000 28.169001 30.921000 21.365000 # H EC
331 34 7 0.000000 27.461000 5.043000 25.719999 # O2 EC
332 34 8 0.000000 28.583000 4.702000 23.799000 # O3 EC
333 34 6 0.000000 27.438000 2.960000 24.757999 # O1 EC
334 34 2 0.000000 27.860001 6.317000 25.237000 # C2 EC
335 34 3 0.000000 28.962000 5.982000 24.284000 # C3 EC
336 34 1 0.000000 27.795000 4.129000 24.759001 # C1 EC
337 34 4 0.000000 28.191999 6.960000 26.056000 # H EC
338 34 4 0.000000 27.003000 6.783000 24.739000 # H EC
339 34 4 0.000000 29.044001 6.702000 23.466000 # H EC
340 34 4 0.000000 29.933001 5.891000 24.782000 # H EC
341 35 7 0.000000 13.842000 29.686001 28.230000 # O2 EC
342 35 8 0.000000 11.828000 28.687000 28.325001 # O3 EC
343 35 6 0.000000 11.966000 30.966000 28.558001 # O1 EC
344 35 2 0.000000 14.024000 28.339001 27.819000 # C2 EC
345 35 3 0.000000 12.807000 27.659000 28.361000 # C3 EC
346 35 1 0.000000 12.497000 29.879000 28.386999 # C1 EC
347 35 4 0.000000 14.952000 27.927999 28.225000 # H EC
348 35 4 0.000000 14.066000 28.313000 26.725000 # H EC
349 35 4 0.000000 12.498000 26.804001 27.754999 # H EC
350 35 4 0.000000 12.936000 27.337000 29.399000 # H EC
351 36 7 0.000000 21.504999 21.680000 18.898001 # O2 EC
352 36 8 0.000000 23.250000 20.655001 17.914000 # O3 EC
353 36 6 0.000000 21.115999 19.981001 17.406000 # O1 EC
354 36 2 0.000000 22.663000 22.444000 19.201000 # C2 EC
355 36 3 0.000000 23.775000 21.476999 18.947001 # C3 EC
356 36 1 0.000000 21.886999 20.705999 18.017000 # C1 EC
357 36 4 0.000000 22.639999 22.797001 20.235001 # H EC
358 36 4 0.000000 22.695000 23.306000 18.525999 # H EC
359 36 4 0.000000 24.695000 21.969999 18.625000 # H EC
360 36 4 0.000000 23.989000 20.848000 19.816999 # H EC
361 37 7 0.000000 18.523001 24.695000 11.085000 # O2 EC
362 37 8 0.000000 20.299999 24.885000 9.719000 # O3 EC
363 37 6 0.000000 19.511999 26.746000 10.805000 # O1 EC
364 37 2 0.000000 18.934999 23.378000 10.750000 # C2 EC
365 37 3 0.000000 19.753000 23.590000 9.517000 # C3 EC
366 37 1 0.000000 19.450001 25.551001 10.559000 # C1 EC
367 37 4 0.000000 18.072001 22.730000 10.576000 # H EC
368 37 4 0.000000 19.525000 22.976999 11.581000 # H EC
369 37 4 0.000000 20.545000 22.844999 9.405000 # H EC
370 37 4 0.000000 19.143999 23.607000 8.608000 # H EC
371 38 7 0.000000 24.031000 29.087999 8.541000 # O2 EC
372 38 8 0.000000 23.108999 31.004000 7.807000 # O3 EC
373 38 6 0.000000 21.766001 29.181000 8.186000 # O1 EC
374 38 2 0.000000 25.031000 30.091999 8.627000 # C2 EC
375 38 3 0.000000 24.518000 31.150999 7.706000 # C3 EC
376 38 1 0.000000 22.868000 29.709000 8.179000 # C1 EC
377 38 4 0.000000 26.004999 29.702999 8.321000 # H EC
378 38 4 0.000000 25.090000 30.434000 9.666000 # H EC
379 38 4 0.000000 24.827999 32.155998 8.005000 # H EC
380 38 4 0.000000 24.812000 30.979000 6.665000 # H EC
381 39 7 0.000000 2.389000 2.217000 14.975000 # O2 EC
382 39 8 0.000000 2.055000 -0.002000 14.816000 # O3 EC
383 39 6 0.000000 4.179000 0.836000 14.586000 # O1 EC
384 39 2 0.000000 1.055000 1.965000 15.391000 # C2 EC
385 39 3 0.000000 0.776000 0.615000 14.811000 # C3 EC
386 39 1 0.000000 2.983000 1.002000 14.775000 # C1 EC
387 39 4 0.000000 0.375000 2.733000 15.016000 # H EC
388 39 4 0.000000 1.029000 1.964000 16.487000 # H EC
389 39 4 0.000000 0.063000 0.040000 15.408000 # H EC
390 39 4 0.000000 0.419000 0.669000 13.778000 # H EC
391 40 7 0.000000 6.126000 19.403999 30.156000 # O2 EC
392 40 8 0.000000 8.118000 20.431999 29.959000 # O3 EC
393 40 6 0.000000 7.163000 20.218000 32.035000 # O1 EC
394 40 2 0.000000 6.581000 19.181000 28.830000 # C2 EC
395 40 3 0.000000 7.606000 20.253000 28.646000 # C3 EC
396 40 1 0.000000 7.138000 20.035000 30.827000 # C1 EC
397 40 4 0.000000 5.759000 19.257000 28.115000 # H EC
398 40 4 0.000000 7.013000 18.174999 28.777000 # H EC
399 40 4 0.000000 8.401000 19.962000 27.954000 # H EC
400 40 4 0.000000 7.167000 21.198999 28.312000 # H EC
401 41 7 0.000000 9.327000 3.431000 16.598000 # O2 EC
402 41 8 0.000000 8.981000 1.317000 17.288000 # O3 EC
403 41 6 0.000000 7.500000 2.279000 15.822000 # O1 EC
404 41 2 0.000000 10.499000 3.020000 17.285999 # C2 EC
405 41 3 0.000000 10.018000 1.858000 18.094000 # C3 EC
406 41 1 0.000000 8.511000 2.337000 16.507000 # C1 EC
407 41 4 0.000000 10.893000 3.829000 17.906000 # H EC
408 41 4 0.000000 11.253000 2.732000 16.546000 # H EC
409 41 4 0.000000 10.802000 1.116000 18.271999 # H EC
410 41 4 0.000000 9.589000 2.164000 19.054001 # H EC
411 42 7 0.000000 25.368000 5.836000 31.353001 # O2 EC
412 42 8 0.000000 23.792999 4.301000 31.830999 # O3 EC
413 42 6 0.000000 23.277000 6.531000 31.992001 # O1 EC
414 42 2 0.000000 25.875999 4.576000 30.941999 # C2 EC
415 42 3 0.000000 25.028999 3.611000 31.708000 # C3 EC
416 42 1 0.000000 24.073999 5.638000 31.747000 # C1 EC
417 42 4 0.000000 26.938000 4.484000 31.180000 # H EC
418 42 4 0.000000 25.740000 4.484000 29.858000 # H EC
419 42 4 0.000000 24.893999 2.661000 31.184000 # H EC
420 42 4 0.000000 25.420000 3.416000 32.710999 # H EC
421 43 7 0.000000 27.565001 15.071000 29.945999 # O2 EC
422 43 8 0.000000 29.726999 14.454000 29.848000 # O3 EC
423 43 6 0.000000 28.115999 12.858000 30.205999 # O1 EC
424 43 2 0.000000 28.299000 16.194000 29.481001 # C2 EC
425 43 3 0.000000 29.698000 15.873000 29.900000 # C3 EC
426 43 1 0.000000 28.440001 14.022000 30.017000 # C1 EC
427 43 4 0.000000 27.927000 17.118000 29.929001 # H EC
428 43 4 0.000000 28.191000 16.252001 28.392000 # H EC
429 43 4 0.000000 30.447001 16.304001 29.231001 # H EC
430 43 4 0.000000 29.910000 16.187000 30.927000 # H EC
431 44 7 0.000000 7.435000 23.854000 11.813000 # O2 EC
432 44 8 0.000000 9.314000 22.799000 11.168000 # O3 EC
433 44 6 0.000000 7.977000 21.839001 12.768000 # O1 EC
434 44 2 0.000000 7.923000 24.535000 10.667000 # C2 EC
435 44 3 0.000000 9.354000 24.104000 10.610000 # C3 EC
436 44 1 0.000000 8.220000 22.747999 11.987000 # C1 EC
437 44 4 0.000000 7.814000 25.615999 10.777000 # H EC
438 44 4 0.000000 7.351000 24.201000 9.795000 # H EC
439 44 4 0.000000 9.746000 24.080999 9.590000 # H EC
440 44 4 0.000000 10.004000 24.729000 11.231000 # H EC
441 45 7 0.000000 28.379000 12.959000 2.219000 # O2 EC
442 45 8 0.000000 29.500999 12.244000 0.404000 # O3 EC
443 45 6 0.000000 28.056000 14.016000 0.208000 # O1 EC
444 45 2 0.000000 29.358999 12.036000 2.671000 # C2 EC
445 45 3 0.000000 29.700001 11.279000 1.427000 # C3 EC
446 45 1 0.000000 28.596001 13.152000 0.882000 # C1 EC
447 45 4 0.000000 28.958000 11.393000 3.458000 # H EC
448 45 4 0.000000 30.211000 12.601000 3.065000 # H EC
449 45 4 0.000000 30.731001 10.916000 1.426000 # H EC
450 45 4 0.000000 29.021999 10.438000 1.250000 # H EC
451 46 7 0.000000 15.883000 25.212999 30.782000 # O2 EC
452 46 8 0.000000 14.046000 25.340000 29.489000 # O3 EC
453 46 6 0.000000 14.791000 27.219999 30.573999 # O1 EC
454 46 2 0.000000 15.798000 23.993999 30.058001 # C2 EC
455 46 3 0.000000 14.366000 23.962999 29.629999 # C3 EC
456 46 1 0.000000 14.897000 26.032000 30.306000 # C1 EC
457 46 4 0.000000 16.066999 23.143999 30.688000 # H EC
458 46 4 0.000000 16.488001 24.047001 29.208000 # H EC
459 46 4 0.000000 14.220000 23.430000 28.686001 # H EC
460 46 4 0.000000 13.710000 23.530001 30.392000 # H EC
461 47 7 0.000000 15.279000 4.557000 11.799000 # O2 EC
462 47 8 0.000000 16.194000 4.419000 13.850000 # O3 EC
463 47 6 0.000000 14.155000 3.442000 13.460000 # O1 EC
464 47 2 0.000000 16.615999 5.023000 11.692000 # C2 EC
465 47 3 0.000000 16.968000 5.350000 13.108000 # C3 EC
466 47 1 0.000000 15.121000 4.081000 13.071000 # C1 EC
467 47 4 0.000000 16.676001 5.891000 11.032000 # H EC
468 47 4 0.000000 17.233000 4.215000 11.283000 # H EC
469 47 4 0.000000 18.034000 5.226000 13.316000 # H EC
470 47 4 0.000000 16.662001 6.362000 13.392000 # H EC
471 48 7 0.000000 9.112000 16.419001 25.783001 # O2 EC
472 48 8 0.000000 7.042000 16.351000 26.660999 # O3 EC
473 48 6 0.000000 8.430000 14.540000 26.908001 # O1 EC
474 48 2 0.000000 8.579000 17.732000 25.695999 # C2 EC
475 48 3 0.000000 7.108000 17.502001 25.830999 # C3 EC
476 48 1 0.000000 8.214000 15.667000 26.489000 # C1 EC
477 48 4 0.000000 8.846000 18.201000 24.746000 # H EC
478 48 4 0.000000 8.987000 18.327999 26.520000 # H EC
479 48 4 0.000000 6.590000 18.346001 26.294001 # H EC
480 48 4 0.000000 6.631000 17.268000 24.874001 # H EC
481 49 7 0.000000 16.063999 22.273001 17.052000 # O2 EC
482 49 8 0.000000 14.266000 21.209000 16.216000 # O3 EC
483 49 6 0.000000 15.688000 22.309999 14.789000 # O1 EC
484 49 2 0.000000 15.514000 21.493000 18.103001 # C2 EC
485 49 3 0.000000 14.121000 21.231001 17.628000 # C3 EC
486 49 1 0.000000 15.369000 21.962999 15.917000 # C1 EC
487 49 4 0.000000 15.541000 22.037001 19.051001 # H EC
488 49 4 0.000000 16.103001 20.573999 18.198000 # H EC
489 49 4 0.000000 13.723000 20.281000 17.995001 # H EC
490 49 4 0.000000 13.429000 22.037001 17.895000 # H EC
491 50 7 0.000000 32.443001 2.855000 1.586000 # O2 EC
492 50 8 0.000000 34.120998 3.740000 0.377000 # O3 EC
493 50 6 0.000000 33.959000 1.460000 0.577000 # O1 EC
494 50 2 0.000000 32.161999 4.238000 1.433000 # C2 EC
495 50 3 0.000000 33.495998 4.809000 1.072000 # C3 EC
496 50 1 0.000000 33.544998 2.582000 0.825000 # C1 EC
497 50 4 0.000000 31.759001 4.661000 2.356000 # H EC
498 50 4 0.000000 31.426001 4.355000 0.631000 # H EC
499 50 4 0.000000 33.416000 5.695000 0.436000 # H EC
500 50 4 0.000000 34.098999 5.052000 1.953000 # H EC
501 51 7 0.000000 27.232000 20.482000 3.478000 # O2 EC
502 51 8 0.000000 29.162001 20.218000 4.606000 # O3 EC
503 51 6 0.000000 27.172001 20.146000 5.747000 # O1 EC
504 51 2 0.000000 28.261999 20.327999 2.513000 # C2 EC
505 51 3 0.000000 29.497999 20.643999 3.293000 # C3 EC
506 51 1 0.000000 27.798000 20.271000 4.705000 # C1 EC
507 51 4 0.000000 28.112000 21.006001 1.669000 # H EC
508 51 4 0.000000 28.247000 19.294001 2.152000 # H EC
509 51 4 0.000000 30.377001 20.110001 2.923000 # H EC
510 51 4 0.000000 29.714001 21.716999 3.320000 # H EC
511 52 7 0.000000 28.858000 8.362000 32.983002 # O2 EC
512 52 8 0.000000 28.013000 10.446000 33.062000 # O3 EC
513 52 6 0.000000 30.101000 10.111000 32.169998 # O1 EC
514 52 2 0.000000 27.490000 8.245000 33.347000 # C2 EC
515 52 3 0.000000 27.158001 9.618000 33.837002 # C3 EC
516 52 1 0.000000 29.083000 9.679000 32.691002 # C1 EC
517 52 4 0.000000 27.353001 7.479000 34.113998 # H EC
518 52 4 0.000000 26.917000 7.969000 32.455002 # H EC
519 52 4 0.000000 26.108999 9.880000 33.674999 # H EC
520 52 4 0.000000 27.403999 9.756000 34.894001 # H EC
521 53 7 0.000000 30.667000 30.045000 30.174999 # O2 EC
522 53 8 0.000000 29.995001 28.698999 28.502001 # O3 EC
523 53 6 0.000000 31.194000 30.593000 28.010000 # O1 EC
524 53 2 0.000000 30.173000 28.855000 30.770000 # C2 EC
525 53 3 0.000000 29.337000 28.261999 29.681999 # C3 EC
526 53 1 0.000000 30.667000 29.847000 28.822001 # C1 EC
527 53 4 0.000000 29.596001 29.077000 31.671000 # H EC
528 53 4 0.000000 31.025999 28.219999 31.035000 # H EC
529 53 4 0.000000 29.299999 27.170000 29.726999 # H EC
530 53 4 0.000000 28.315001 28.656000 29.677000 # H EC
531 54 7 0.000000 7.763000 17.247000 12.864000 # O2 EC